8
 Energy =     -53.2632275088
 B    0.0000000    0.8650000    0.0000000  0.00   -0.0000000    0.3313954   -0.0000000
 B    0.0000000   -0.8650000    0.0000000  0.00   -0.0000000   -0.3313954   -0.0000000
 H    0.9800000    0.0000000    0.0000000  0.00    0.1260605   -0.0000000   -0.0000000
 H   -0.9800000    0.0000000    0.0000000  0.00   -0.1260605   -0.0000000   -0.0000000
 H    0.0000000   -1.4600000    1.0300000  0.00   -0.0000000   -0.0385069    0.1320496
 H    0.0000000   -1.4600000   -1.0300000  0.00   -0.0000000   -0.0385069   -0.1320496
 H    0.0000000    1.4600000    1.0300000  0.00   -0.0000000    0.0385069    0.1320496
 H    0.0000000    1.4600000   -1.0300000  0.00   -0.0000000    0.0385069   -0.1320496
8
 Energy =     -53.2638480794
 B    0.0000000    0.8725185    0.0000000  0.00   -0.0000000    0.2711028   -0.0000000
 B    0.0000000   -0.8725185    0.0000000  0.00   -0.0000000   -0.2711028   -0.0000000
 H    0.9808723    0.0000000    0.0000000  0.00    0.0980048   -0.0000000   -0.0000000
 H   -0.9808723    0.0000000    0.0000000  0.00   -0.0980048   -0.0000000   -0.0000000
 H    0.0000000   -1.4677092    1.0368850  0.00   -0.0000000   -0.0017440    0.0650827
 H    0.0000000   -1.4677092   -1.0368850  0.00   -0.0000000   -0.0017440   -0.0650827
 H    0.0000000    1.4677092    1.0368850  0.00   -0.0000000    0.0017440    0.0650827
 H    0.0000000    1.4677092   -1.0368850  0.00   -0.0000000    0.0017440   -0.0650827
8
 Energy =     -53.2643210661
 B    0.0000000    0.8857561    0.0000000  0.00   -0.0000000    0.1270631   -0.0000000
 B    0.0000000   -0.8857561    0.0000000  0.00   -0.0000000   -0.1270631   -0.0000000
 H    0.9848994    0.0000000    0.0000000  0.00    0.0272759   -0.0000000   -0.0000000
 H   -0.9848994    0.0000000    0.0000000  0.00   -0.0272759   -0.0000000   -0.0000000
 H    0.0000000   -1.4779470    1.0471109  0.00   -0.0000000    0.0367122   -0.0180297
 H    0.0000000   -1.4779470   -1.0471109  0.00   -0.0000000    0.0367122    0.0180297
 H    0.0000000    1.4779470    1.0471109  0.00   -0.0000000   -0.0367122   -0.0180297
 H    0.0000000    1.4779470   -1.0471109  0.00   -0.0000000   -0.0367122    0.0180297
8
 Energy =     -53.2643901058
 B    0.0000000    0.8904324    0.0000000  0.00   -0.0000000    0.0241809   -0.0000000
 B    0.0000000   -0.8904324    0.0000000  0.00   -0.0000000   -0.0241809   -0.0000000
 H    0.9870534    0.0000000    0.0000000  0.00   -0.0051596   -0.0000000   -0.0000000
 H   -0.9870534    0.0000000    0.0000000  0.00    0.0051596   -0.0000000   -0.0000000
 H    0.0000000   -1.4767613    1.0484664  0.00   -0.0000000    0.0190030   -0.0065972
 H    0.0000000   -1.4767613   -1.0484664  0.00   -0.0000000    0.0190030    0.0065972
 H    0.0000000    1.4767613    1.0484664  0.00   -0.0000000   -0.0190030   -0.0065972
 H    0.0000000    1.4767613   -1.0484664  0.00   -0.0000000   -0.0190030    0.0065972
8
 Energy =     -53.2644016368
 B    0.0000000    0.8905306    0.0000000  0.00   -0.0000000   -0.0017856   -0.0000000
 B    0.0000000   -0.8905306    0.0000000  0.00   -0.0000000    0.0017856   -0.0000000
 H    0.9865524    0.0000000    0.0000000  0.00   -0.0026055   -0.0000000   -0.0000000
 H   -0.9865524    0.0000000    0.0000000  0.00    0.0026055   -0.0000000   -0.0000000
 H    0.0000000   -1.4734821    1.0482909  0.00   -0.0000000    0.0030413    0.0085077
 H    0.0000000   -1.4734821   -1.0482909  0.00   -0.0000000    0.0030413   -0.0085077
 H    0.0000000    1.4734821    1.0482909  0.00   -0.0000000   -0.0030413    0.0085077
 H    0.0000000    1.4734821   -1.0482909  0.00   -0.0000000   -0.0030413   -0.0085077
8
 Energy =     -53.2644049966
 B    0.0000000    0.8904582    0.0000000  0.00   -0.0000000   -0.0010021   -0.0000000
 B    0.0000000   -0.8904582    0.0000000  0.00   -0.0000000    0.0010021   -0.0000000
 H    0.9860436    0.0000000    0.0000000  0.00    0.0012463   -0.0000000   -0.0000000
 H   -0.9860436    0.0000000    0.0000000  0.00   -0.0012463   -0.0000000   -0.0000000
 H    0.0000000   -1.4717587    1.0495036  0.00   -0.0000000    0.0002965    0.0031571
 H    0.0000000   -1.4717587   -1.0495036  0.00   -0.0000000    0.0002965   -0.0031571
 H    0.0000000    1.4717587    1.0495036  0.00   -0.0000000   -0.0002965    0.0031571
 H    0.0000000    1.4717587   -1.0495036  0.00   -0.0000000   -0.0002965   -0.0031571
8
 Energy =     -53.2644054588
 B    0.0000000    0.8904530    0.0000000  0.00   -0.0000000   -0.0002616   -0.0000000
 B    0.0000000   -0.8904530    0.0000000  0.00   -0.0000000    0.0002616   -0.0000000
 H    0.9861019    0.0000000    0.0000000  0.00    0.0005429   -0.0000000   -0.0000000
 H   -0.9861019    0.0000000    0.0000000  0.00   -0.0005429   -0.0000000   -0.0000000
 H    0.0000000   -1.4712538    1.0500200  0.00   -0.0000000    0.0000756    0.0000771
 H    0.0000000   -1.4712538   -1.0500200  0.00   -0.0000000    0.0000756   -0.0000771
 H    0.0000000    1.4712538    1.0500200  0.00   -0.0000000   -0.0000756    0.0000771
 H    0.0000000    1.4712538   -1.0500200  0.00   -0.0000000   -0.0000756   -0.0000771
